6
Lattice="50.0 0.0 0.0 0.0 50.0 0.0 0.0 0.0 50.0" Properties=species:S:1:pos:R:3:forces:R:3 config_type=methanol energy=-3142.2563665078364 pbc="F F F"
C       -0.02414296      -0.51117013       0.58681819       1.07167530       1.11605373       2.40017560
H       -0.71974029      -0.35258750       1.49764775       0.73644201      -0.67414773      -0.75253565
O       -0.66991365      -0.34613457      -0.61566572      -0.45403784       0.09028456      -1.36265950
H        0.89004852       0.19164360       0.85340477      -1.28069616      -0.07273426      -0.79072426
H        0.57757996      -1.46703392       0.64017290      -1.06820877      -0.05837310      -0.15820024
H       -1.48111725       0.22320351      -0.61973177       0.99482546      -0.40108320       0.66394405
6
Lattice="50.0 0.0 0.0 0.0 50.0 0.0 0.0 0.0 50.0" Properties=species:S:1:pos:R:3:forces:R:3 config_type=methanol energy=-3142.269768628279 pbc="F F F"
C        0.01586619      -0.51880369       0.57350534       1.26162221       0.86169608       1.22940748
H       -0.24946883      -1.53315261       0.98013185       0.71548201       0.37615256      -0.02330123
O       -0.74768470      -0.36496493      -0.59034753       0.38781292      -0.17253225       0.02888861
H       -0.30375087       0.26460686       1.37277848       0.35854570      -0.93715709      -0.60243744
H        1.23623138      -0.31557472       0.46520945      -2.43337692      -0.83063910       0.05822490
H       -0.72262468       0.58863676      -0.69590547      -0.29008593       0.70247980      -0.69078232
6
Lattice="50.0 0.0 0.0 0.0 50.0 0.0 0.0 0.0 50.0" Properties=species:S:1:pos:R:3:forces:R:3 config_type=methanol energy=-3142.2661934078897 pbc="F F F"
C       -0.01337944      -0.49560355       0.65195590      -0.25403217       2.20774038      -2.18672643
H        0.40132444      -1.51189387       0.66611973       0.35126841      -0.03519812       0.45771910
O       -0.67876856      -0.37895287      -0.65307918       1.54534324      -1.64306408       0.49421526
H       -0.83239629      -0.31216375       1.35572692       0.16939208      -0.32667146       1.09785849
H        0.76608200       0.39491300       0.73649106      -0.76288339      -1.73706599       0.26197112
H       -1.16987429       0.41668699      -0.55639029      -1.04908817       1.53425927      -0.12503753
6
Lattice="50.0 0.0 0.0 0.0 50.0 0.0 0.0 0.0 50.0" Properties=species:S:1:pos:R:3:forces:R:3 config_type=methanol energy=-3141.9781203658845 pbc="F F F"
C       -0.07611841      -0.49203803       0.71350503       2.59585710       1.89379474      -5.22680085
H        0.58163093      -1.36222897       0.50692223       0.28604374       0.12803367       1.27993137
O       -0.65441989      -0.28445401      -0.66174527       0.18445433       1.07091276       1.10079616
H       -0.88771050      -0.62957879       1.30906298      -2.57107874      -0.81874974       2.85828365
H        0.48139159       0.51297518       0.95726829      -0.62939414      -1.76764224      -0.12505743
H       -0.63485371      -1.11546810      -1.14935770       0.13411770      -0.50634918       0.11284711
6
Lattice="50.0 0.0 0.0 0.0 50.0 0.0 0.0 0.0 50.0" Properties=species:S:1:pos:R:3:forces:R:3 config_type=methanol energy=-3142.235589338202 pbc="F F F"
C       -0.12427439      -0.49113989       0.69343931       2.27582772       2.54580339      -2.40982494
H        0.87885173      -1.05201285       0.55895644      -1.26088048       0.32326122       1.04580165
O       -0.59557944      -0.39977173      -0.67721464      -0.50400757       1.27565192       0.26835569
H       -0.87783914      -0.90250813       1.33359280      -0.60444465      -0.88896217       1.03603799
H        0.12181647       0.61274816       1.05288914      -0.18432217      -1.86216112      -0.10667559
H       -0.88586978       0.55164148      -0.81188129       0.27782714      -1.39359324       0.16630520
6
Lattice="50.0 0.0 0.0 0.0 50.0 0.0 0.0 0.0 50.0" Properties=species:S:1:pos:R:3:forces:R:3 config_type=methanol energy=-3142.3397799288346 pbc="F F F"
C       -0.08082738      -0.54196284       0.62634152       0.32647725       0.18946356       0.94201155
H        1.02425992      -0.81380627       0.51665556      -0.96613389      -0.57315842       0.27367748
O       -0.69293974      -0.28552093      -0.60259812       0.19716399      -0.00599439      -1.45052870
H       -0.76075268      -1.28073941       1.24138231       1.42256818       0.78039744      -0.77596410
H        0.01289073       0.41112582       1.24382367      -0.36343861      -0.43364935      -0.15554574
H       -0.04912218      -0.35470760      -1.36211263      -0.61663692       0.04294115       1.16634951
6
Lattice="50.0 0.0 0.0 0.0 50.0 0.0 0.0 0.0 50.0" Properties=species:S:1:pos:R:3:forces:R:3 config_type=methanol energy=-3142.2369435617265 pbc="F F F"
C        0.01562954      -0.63047269       0.54369832      -1.94645846      -2.47077072       0.77637469
H        1.11286781      -0.74573260       0.45730246       0.23894368      -0.49852484      -0.74559288
O       -0.71571732      -0.14097141      -0.55563761       1.14388342       1.57190638       0.53254669
H       -0.55044847      -1.64887639       0.89632231       1.72654593       1.66304265      -0.38803984
H       -0.04858063       0.00992105       1.41786175      -0.49125461       0.87460124       0.60567867
H       -1.15057513      -0.89261520      -0.91950541      -0.67165995      -1.14025471      -0.78096733
6
Lattice="50.0 0.0 0.0 0.0 50.0 0.0 0.0 0.0 50.0" Properties=species:S:1:pos:R:3:forces:R:3 config_type=methanol energy=-3142.2119398810837 pbc="F F F"
C        0.13346966      -0.66849976       0.41742323      -0.32592968      -2.40279401       0.09783045
H        1.07182967      -0.26463400       0.11776216       1.71878046      -0.16348955      -1.15083339
O       -0.83292794      -0.15506557      -0.47714196      -0.80025988       0.11643686       1.60880550
H        0.12876157      -1.87590381       0.48908691       0.25702867       2.11723551      -0.29947031
H        0.22461266      -0.32933649       1.46659646      -1.22288956       0.34100172       0.52584778
H       -1.65129477      -0.10076634       0.08114650       0.37326999      -0.00839053      -0.78218003
6
Lattice="50.0 0.0 0.0 0.0 50.0 0.0 0.0 0.0 50.0" Properties=species:S:1:pos:R:3:forces:R:3 config_type=methanol energy=-3142.2153337261293 pbc="F F F"
C        0.24350758      -0.55285957       0.30848687       0.81949803      -1.17356602       1.91144397
H        1.00770953       0.25179562       0.27834444       0.22179045       0.02772023      -1.22219896
O       -0.98912432      -0.32519515      -0.33838045       0.46087216       2.06719129      -0.15670979
H        0.67820705      -1.60429542       0.06297367      -0.46607060       1.48984480      -0.13869546
H        0.25992135      -0.56455186       1.47376648      -1.00786829      -0.33305093      -0.80922181
H       -1.02452196       0.68064467      -0.52902856      -0.02822175      -2.07813938       0.41538205
6
Lattice="50.0 0.0 0.0 0.0 50.0 0.0 0.0 0.0 50.0" Properties=species:S:1:pos:R:3:forces:R:3 config_type=methanol energy=-3142.2170648244114 pbc="F F F"
C        0.28731404      -0.47575351       0.23303456       0.73090666       1.88656132       3.65599033
H        0.90059191       0.51731446       0.48316502      -1.13548524      -1.17336393      -1.22278173
O       -1.03725105      -0.30698528      -0.22899343       0.88835591      -0.10701076       0.03887855
H        0.88734374      -1.14650814      -0.34670141       0.80020096      -0.61435405      -1.01609056
H        0.37197804      -0.89572236       1.31881679      -0.63332628      -0.00467770      -1.11084929
H       -1.01635988      -0.91354450      -0.98244974      -0.65065200       0.01284511      -0.34514729
6
Lattice="50.0 0.0 0.0 0.0 50.0 0.0 0.0 0.0 50.0" Properties=species:S:1:pos:R:3:forces:R:3 config_type=methanol energy=-3142.292166265013 pbc="F F F"
C        0.26890779      -0.37749890       0.27447581       1.49691816       2.47631964       0.36792495
H        0.66344912       0.68669905       0.77685666      -1.33385568      -1.76243961      -1.03270099
O       -0.99042538      -0.43346796      -0.33504221       1.06725443       0.28673805      -0.42666089
H        1.03186286      -0.55123516      -0.49583037       0.19671451      -0.02491053      -0.44926402
H        0.52923714      -1.09375163       1.05541780      -0.46560340      -0.78709335       0.57496491
H       -1.62674720      -0.64487504       0.33497316      -0.96142802      -0.18861420       0.96573604
6
Lattice="50.0 0.0 0.0 0.0 50.0 0.0 0.0 0.0 50.0" Properties=species:S:1:pos:R:3:forces:R:3 config_type=methanol energy=-3142.246016848213 pbc="F F F"
C        0.26037153      -0.32515173       0.28812534       0.48315369       2.68983026       1.08396561
H        0.30763324       0.29729516       1.25385990      -0.85229918      -0.68693092      -0.31398687
O       -1.01459156      -0.53247241      -0.27202460       0.61321344       0.76169101      -0.60389439
H        1.06940923       0.29295150      -0.21053121      -0.81024218      -0.41273663      -0.95268092
H        0.73528435      -1.23329930       0.51392605       0.90483604      -2.13611914       0.53082095
H       -0.99438665      -0.02649691      -1.11094536      -0.33866181      -0.21573460       0.25577562
6
Lattice="50.0 0.0 0.0 0.0 50.0 0.0 0.0 0.0 50.0" Properties=species:S:1:pos:R:3:forces:R:3 config_type=methanol energy=-3142.3235312337897 pbc="F F F"
C        0.21377730      -0.41651543       0.37943862       0.69699654       1.53351030       0.93027267
H        0.11252263      -0.47404562       1.48823490      -0.81724631      -0.88867466       0.24630686
O       -0.95270429      -0.35494995      -0.40976042       0.11670827      -2.09190496       0.35448713
H        0.74422191       0.56746140       0.45145625      -0.09019437       0.03642474      -1.08857801
H        0.94792291      -1.17255124       0.07190898       0.30704819      -0.31996444      -0.24275574
H       -1.16319224      -1.34578299      -0.46470672      -0.21331232       1.73060902      -0.19973291
6
Lattice="50.0 0.0 0.0 0.0 50.0 0.0 0.0 0.0 50.0" Properties=species:S:1:pos:R:3:forces:R:3 config_type=methanol energy=-3142.3004513637434 pbc="F F F"
C        0.22401430      -0.50934324       0.37791534       1.54384258       1.49079626      -2.34499508
H        0.30151520      -1.41700086       0.91929471      -0.23254352      -2.09342380       0.51832677
O       -0.94838476      -0.35913620      -0.41841964      -0.24095711       0.68292576       1.16683907
H        0.38426185       0.21709955       1.21143128      -0.13881621       0.50263969      -0.50487005
H        1.13041500      -0.47484214      -0.38834491      -1.00860984       0.02473073       1.58015116
H       -1.37807295       0.45568088      -0.06442108       0.07708410      -0.60766864      -0.41545187
6
Lattice="50.0 0.0 0.0 0.0 50.0 0.0 0.0 0.0 50.0" Properties=species:S:1:pos:R:3:forces:R:3 config_type=methanol energy=-3142.384754694509 pbc="F F F"
C        0.24489169      -0.65907406       0.25107053       0.66736794       2.06362491       0.80891403
H        0.56722117      -1.61271891      -0.13987546       0.26522230      -0.98448264      -0.82930088
O       -0.99103763      -0.16814662      -0.22380434       0.59688244      -0.17116333      -0.86901244
H        0.01413386      -0.86058315       1.29875988       0.54002694       0.06783199       0.81751529
H        1.17185289       0.10556684       0.15787215      -1.59023853      -1.22031302       0.23588314
H       -0.85300257      -0.16581000      -1.18843865      -0.47926109       0.24450208      -0.16399914
6
Lattice="50.0 0.0 0.0 0.0 50.0 0.0 0.0 0.0 50.0" Properties=species:S:1:pos:R:3:forces:R:3 config_type=methanol energy=-3142.4091947837815 pbc="F F F"
C        0.23502086      -0.73759649       0.15509267       1.91685021       1.57387257      -0.87129092
H        0.80602757      -0.81062039      -0.82295278       0.09771289      -0.09362682       0.67824202
O       -0.94591967      -0.07501879      -0.19372287      -0.05798843       0.12066051      -0.23892282
H        0.18574565      -1.77270081       0.52968832      -0.37643381      -0.18674920       0.38804903
H        0.89671617      -0.06022085       0.84485271      -0.72413583      -1.11736087      -0.54418709
H       -1.66160294      -0.48432518       0.28290569      -0.85600504      -0.29679620       0.58810979
6
Lattice="50.0 0.0 0.0 0.0 50.0 0.0 0.0 0.0 50.0" Properties=species:S:1:pos:R:3:forces:R:3 config_type=methanol energy=-3142.3664587345097 pbc="F F F"
C        0.27463823      -0.71673055      -0.03692442      -0.14470897      -0.12954494      -1.93651508
H        1.09577221       0.00639901      -0.38416670      -0.74994618      -0.68357493       0.22754540
O       -1.02323586      -0.16148247       0.03407910      -0.06977933       0.56099115      -0.48733961
H        0.27322728      -1.66079354      -0.70398519       0.23212495       0.96487007       0.51407040
H        0.46895619      -1.01605826       0.95673533       1.08112641      -0.85592130       1.77583240
H       -0.92777937       0.73223451      -0.32747093      -0.34881688       0.14317996      -0.09359351
6
Lattice="50.0 0.0 0.0 0.0 50.0 0.0 0.0 0.0 50.0" Properties=species:S:1:pos:R:3:forces:R:3 config_type=methanol energy=-3142.3704926061573 pbc="F F F"
C        0.25111556      -0.76392700      -0.17332376      -1.48665284       2.44767702      -2.67354714
H        1.06858459      -0.03713408      -0.04358881       0.43208394      -0.22918954       0.06058437
O       -0.94168526      -0.02994036       0.15187251      -0.91307923      -1.69567838       0.36792684
H        0.17201894      -1.03172328      -1.29357454       0.61760148      -0.07662491       0.96643223
H        0.35145847      -1.63389282       0.40469514       0.58206187      -1.86955963       1.28724402
H       -1.63441979      -0.76674816       0.18599472       0.76798479       1.42337544      -0.00864033
6
Lattice="50.0 0.0 0.0 0.0 50.0 0.0 0.0 0.0 50.0" Properties=species:S:1:pos:R:3:forces:R:3 config_type=methanol energy=-3142.4393877996054 pbc="F F F"
C        0.20127803      -0.69235576      -0.36295823      -0.97349512       0.46493369       0.60221965
H        1.08074990      -0.15448549       0.00230413       0.78133674      -0.16994871       0.04275931
O       -0.95577475      -0.17635709       0.28634830       0.25686017       0.99793221       1.21886445
H        0.09636112      -0.46693615      -1.42548090       0.19061666      -0.21153031      -0.81635894
H        0.25779907      -1.78338312      -0.18696177       0.38746476      -0.18669022      -0.13460878
H       -0.61399064       0.45288050       0.98777046      -0.64278322      -0.89469667      -0.91287569
6
Lattice="50.0 0.0 0.0 0.0 50.0 0.0 0.0 0.0 50.0" Properties=species:S:1:pos:R:3:forces:R:3 config_type=methanol energy=-3142.3674939960447 pbc="F F F"
C        0.14004486      -0.59309451      -0.48332767      -0.65859153      -2.12934734       1.72943195
H        1.03075210      -0.13161669      -0.10675572       1.59858309       0.13091979       0.04649987
O       -0.83254243      -0.23870306       0.46391681      -0.82095495       0.53199328       0.32371434
H       -0.05135345      -0.23254315      -1.46585683      -0.28716098       0.44954100      -1.63064422
H        0.21005094      -1.74580063      -0.46726750       0.46379573       1.04374307      -0.48446914
H       -1.63513324      -0.00223890      -0.02115371      -0.29567136      -0.02684980       0.01546721
6
Lattice="50.0 0.0 0.0 0.0 50.0 0.0 0.0 0.0 50.0" Properties=species:S:1:pos:R:3:forces:R:3 config_type=methanol energy=-3142.437983036047 pbc="F F F"
C        0.14943485      -0.52396708      -0.51534399      -1.89902236      -1.08973450       0.38605275
H        1.11844969      -0.11411280      -0.21648230       0.76432636      -0.16891682       0.15065934
O       -0.88810411      -0.26141890       0.43144781       0.02211096       0.95526705      -0.92330604
H       -0.18589510       0.01269370      -1.40090043       0.12143869       0.17561513      -0.81696672
H        0.10736204      -1.64911510      -0.73163290       0.81804032       0.92514398      -0.14547902
H       -0.68617942      -0.81372866       1.17103841       0.17310604      -0.79737483       1.34903969
6
Lattice="50.0 0.0 0.0 0.0 50.0 0.0 0.0 0.0 50.0" Properties=species:S:1:pos:R:3:forces:R:3 config_type=methanol energy=-3142.4542672156103 pbc="F F F"
C        0.07610017      -0.35652662      -0.59694041      -0.61670644       1.77546059       0.54325045
H        1.12539768      -0.04745926      -0.26070123      -0.64327297      -0.43605741      -0.50406664
O       -0.78068855      -0.50908072       0.55712301       0.27487808       0.07309972      -0.65952392
H       -0.31966394       0.49154910      -1.29292820       0.58587628      -1.07915073       0.67465709
H        0.07023246      -1.29558118      -1.17177513       0.28074658      -0.21849451      -0.12291925
H       -1.32946076       0.29486587       0.59835820       0.11847847      -0.11485766       0.06860226
6
Lattice="50.0 0.0 0.0 0.0 50.0 0.0 0.0 0.0 50.0" Properties=species:S:1:pos:R:3:forces:R:3 config_type=methanol energy=-3142.3562723273653 pbc="F F F"
C        0.04782878      -0.22804313      -0.57737507      -0.03217127       2.30876488       0.63702513
H        1.08443188       0.13071034      -0.19392138      -1.04217958      -0.32310080      -0.75153531
O       -0.77592625      -0.52587248       0.54533114      -0.29911595      -2.08113346      -0.43454544
H       -0.44099623       0.62543329      -1.22755475       0.81154882      -1.05248769       0.95853482
H        0.16476986      -1.07244897      -1.23795804       0.33644299      -0.83970007      -0.68762101
H       -0.94110423      -1.53077479       0.48796585       0.22547499       1.98765715       0.27814182
6
Lattice="50.0 0.0 0.0 0.0 50.0 0.0 0.0 0.0 50.0" Properties=species:S:1:pos:R:3:forces:R:3 config_type=methanol energy=-3142.4664050626766 pbc="F F F"
C       -0.03342208      -0.01400503      -0.50257982       0.08415827      -0.78093034      -1.96493790
H        0.82422917       0.57174161      -0.09232684      -0.17653888       0.10287702      -0.08935494
O       -0.70398783      -0.80987756       0.42759887      -0.10315678       0.54870129       1.79448111
H       -0.74948674       0.63252090      -1.11363516       0.56048748       0.04687682       0.54175321
H        0.40113308      -0.73095858      -1.30937040      -0.31315002       0.82873478       0.97098831
H       -0.74769508      -0.28956889       1.28836324      -0.05180007      -0.74625958      -1.25292980
6
Lattice="50.0 0.0 0.0 0.0 50.0 0.0 0.0 0.0 50.0" Properties=species:S:1:pos:R:3:forces:R:3 config_type=methanol energy=-3142.316190336466 pbc="F F F"
C       -0.15126537       0.13584539      -0.45915665       1.66361730      -1.88514195      -1.00188983
H        0.60903924       0.75553546       0.04562491      -0.03244601       0.47164839       0.02190838
O       -0.60778515      -0.87478660       0.45439993       0.14196180       1.10819114      -0.38127452
H       -0.98227007       0.68785804      -0.83632738      -1.17795745       1.21666684      -0.22127980
H        0.37585160      -0.21748829      -1.48161430      -0.78534767       0.07156483       1.91046534
H       -0.38805801      -1.71284195       0.06007243       0.19017203      -0.98292925      -0.32792958
6
Lattice="50.0 0.0 0.0 0.0 50.0 0.0 0.0 0.0 50.0" Properties=species:S:1:pos:R:3:forces:R:3 config_type=methanol energy=-3142.325916316482 pbc="F F F"
C       -0.26328149       0.24842825      -0.32552308       3.11391597      -1.05983757      -0.45898661
H        0.28919869       0.91585725       0.38022330      -0.68994864       0.28139852       0.01239123
O       -0.44041767      -1.02552954       0.30639630       1.26966577       0.93612292      -0.32478403
H       -1.16222202       0.63533365      -0.75821813      -1.18173118       0.83271065      -0.15619142
H        0.51571970       0.23867638      -1.22510044      -1.17927222      -0.46459418       1.08578800
H       -1.35258926      -1.23402252       0.17316906      -1.33262968      -0.52580034      -0.15821718
6
Lattice="50.0 0.0 0.0 0.0 50.0 0.0 0.0 0.0 50.0" Properties=species:S:1:pos:R:3:forces:R:3 config_type=methanol energy=-3142.4122229356904 pbc="F F F"
C       -0.27225675       0.27902296      -0.17635068      -0.82625789       1.25871258       0.47525606
H        0.12895029       0.92934342       0.69337311      -1.03281634      -0.50036092      -0.49514414
O       -0.44389262      -1.07002788       0.10638684       0.92009630      -0.44213123      -0.62620498
H       -1.19126483       0.70713901      -0.72420274       0.67651376       0.13917668       0.88868656
H        0.53150307       0.43568814      -0.87254251       0.95624324      -0.37196487      -1.08801285
H       -1.00492676      -1.13768843       0.87200696      -0.69377907      -0.08343223       0.84541935
6
Lattice="50.0 0.0 0.0 0.0 50.0 0.0 0.0 0.0 50.0" Properties=species:S:1:pos:R:3:forces:R:3 config_type=methanol energy=-3142.381217360614 pbc="F F F"
C       -0.23365653       0.29257636      -0.00405270      -1.12109888       1.51011571       0.61008388
H        0.00918457       0.69022081       1.02445970      -0.58322342      -0.27560118      -0.16245952
O       -0.51048038      -1.07089147      -0.07844131      -0.05475596       0.06651447      -1.08057052
H       -1.03407845       0.99547819      -0.49033417       0.57733013      -1.07173326       0.79649604
H        0.66216947       0.57977224      -0.52228879       1.26785059      -0.07012599      -1.04104335
H       -0.56632452      -1.44837556       0.79482743      -0.08610245      -0.15916975       0.87749347
6
Lattice="50.0 0.0 0.0 0.0 50.0 0.0 0.0 0.0 50.0" Properties=species:S:1:pos:R:3:forces:R:3 config_type=methanol energy=-3142.399134474173 pbc="F F F"
C       -0.18316029       0.25431755       0.21257745      -1.09013837       1.81309942      -1.78906733
H        0.23252615       0.31904808       1.18896727       0.71108661      -0.43315036       1.83949451
O       -0.51044441      -1.03754529      -0.27306812       0.11764222       0.72271052       0.23923976
H       -1.03891051       1.04555702       0.23830792       0.43774965      -1.12802342      -0.14148223
H        0.57207475       0.82281786      -0.42171677      -0.39242762      -1.05296917      -0.03074305
H       -1.25768990      -1.35629052       0.27291297       0.21608751       0.07833301      -0.11744167
6
Lattice="50.0 0.0 0.0 0.0 50.0 0.0 0.0 0.0 50.0" Properties=species:S:1:pos:R:3:forces:R:3 config_type=methanol energy=-3142.383352512032 pbc="F F F"
C       -0.18496218       0.15326618       0.40511467       0.38889647       1.82162472      -0.53385704
H        0.31294434      -0.13308758       1.32665008       0.31719721      -0.79022027       0.54124484
O       -0.52690117      -0.97658461      -0.39599982      -0.59702393       1.74167413      -0.58501867
H       -1.01843469       0.82839075       0.76254705      -0.24300059      -0.63932684      -0.30368034
H        0.54998292       0.97205312      -0.01762504      -0.70801758      -1.37205985      -0.15554327
H       -1.08181533      -0.58474341      -1.14446831       0.84194843      -0.76169189       1.03685449
6
Lattice="50.0 0.0 0.0 0.0 50.0 0.0 0.0 0.0 50.0" Properties=species:S:1:pos:R:3:forces:R:3 config_type=methanol energy=-3142.2692353925163 pbc="F F F"
C       -0.20979209      -0.06930734       0.58924580       1.49228006      -0.42131147       2.02893474
H       -0.10583041      -0.75049592       1.54152791      -0.11470069       0.60381297      -1.68612108
O       -0.55390433      -0.77120706      -0.58207501       0.68443276       1.72671528      -0.68471517
H       -0.85432464       0.73269142       0.93097938      -1.62126005       0.48790646       0.01699585
H        0.72926807       0.57732490       0.56517069       0.12421619      -0.99156649      -0.40041727
H       -0.32376915      -0.07887902      -1.28462471      -0.56496826      -1.40555676       0.72532293
6
Lattice="50.0 0.0 0.0 0.0 50.0 0.0 0.0 0.0 50.0" Properties=species:S:1:pos:R:3:forces:R:3 config_type=methanol energy=-3142.424012677972 pbc="F F F"
C       -0.24800022      -0.32431498       0.67516000       0.12884427       0.33868880       1.81425386
H       -0.79683724      -1.08628453       1.35285203       0.88898309       0.55807476      -1.04907526
O       -0.51167594      -0.53034412      -0.67805352      -0.16175089      -0.04339768      -0.00788155
H       -0.56478772       0.66234429       1.11017294      -0.61057784       0.05563965      -0.42388900
H        0.85007097      -0.23000766       0.95325340      -0.25750848      -0.86665720      -0.22913643
H       -0.26598420       0.29285590      -1.13445365       0.01200985      -0.04234833      -0.10427162
6
Lattice="50.0 0.0 0.0 0.0 50.0 0.0 0.0 0.0 50.0" Properties=species:S:1:pos:R:3:forces:R:3 config_type=methanol energy=-3142.36797084187 pbc="F F F"
C       -0.34167624      -0.53413011       0.67634416       2.04495290       1.96389054       1.38220073
H       -1.19323797      -1.09239482       0.92346960      -1.50095101      -1.69777417       0.84340623
O       -0.43789884      -0.31116738      -0.68888124      -0.48945686      -0.29548755      -0.22812774
H       -0.40596767       0.38190190       1.40514580      -0.10978800      -0.52101004      -1.19953604
H        0.63963805      -0.99237880       1.04216099      -0.69106298      -0.24530916      -0.44265369
H        0.13952582       0.41043481      -0.91681258       0.74630595       0.79569037      -0.35528950
6
Lattice="50.0 0.0 0.0 0.0 50.0 0.0 0.0 0.0 50.0" Properties=species:S:1:pos:R:3:forces:R:3 config_type=methanol energy=-3142.389026405126 pbc="F F F"
C       -0.37501593      -0.73582283       0.61378307      -1.15897881      -0.17922265       1.17264858
H       -1.31457781      -1.36488662       0.56372058       0.90473040      -0.31756217       0.38318850
O       -0.41149727      -0.07960311      -0.62684127      -0.50844370      -0.03719978       0.34759339
H       -0.57371042      -0.12069809       1.59233560       0.41472775      -0.05875731      -1.29628343
H        0.57984199      -1.30936543       0.83994407      -0.71051777      -0.00042091      -0.36882953
H        0.46175869       0.25378231      -0.80084000       1.05848213       0.59316283      -0.23831750
6
Lattice="50.0 0.0 0.0 0.0 50.0 0.0 0.0 0.0 50.0" Properties=species:S:1:pos:R:3:forces:R:3 config_type=methanol energy=-3142.2608146433117 pbc="F F F"
C       -0.34384830      -0.91748717       0.47614473      -1.83589421      -0.98347503       0.54116132
H       -1.27964765      -1.69346912       0.25213876       2.50354360       1.36404290       0.42662229
O       -0.41829436       0.07252797      -0.51472217      -0.16809408       0.80100152       0.07871727
H       -0.52296902      -0.60683454       1.57369728      -0.02649313       0.16377463      -0.99318902
H        0.67923752      -1.36666131       0.49495399      -0.30174047      -0.65787454      -0.09355001
H        0.02807406       0.90540621      -0.23016801      -0.17132171      -0.68746947       0.04023815
6
Lattice="50.0 0.0 0.0 0.0 50.0 0.0 0.0 0.0 50.0" Properties=species:S:1:pos:R:3:forces:R:3 config_type=methanol energy=-3142.3681916475734 pbc="F F F"
C       -0.22625299      -1.00429440       0.33116870      -0.96566961      -1.42111862       0.65855813
H       -0.70211025      -1.96723747      -0.22958252       1.07634456       1.99801830       1.05863580
O       -0.53501405       0.16570705      -0.38963113       0.40468947       0.41787718       0.40840986
H       -0.69050530      -0.98071081       1.41358011       0.51503027      -0.24535981      -1.32409575
H        0.89337801      -1.14360483       0.48143558      -0.60665308      -0.22279722      -0.23741698
H       -0.11543131       0.90102465       0.12953200      -0.42374162      -0.52661983      -0.56409106
6
Lattice="50.0 0.0 0.0 0.0 50.0 0.0 0.0 0.0 50.0" Properties=species:S:1:pos:R:3:forces:R:3 config_type=methanol energy=-3142.3721404729454 pbc="F F F"
C       -0.15816058      -1.03807153       0.24305919       1.07281755       1.10868154       2.45361148
H       -0.40631071      -1.84356480      -0.41304265      -0.68552674      -1.03648225      -0.79868545
O       -0.61679099       0.19759522      -0.30360178       0.97683887       0.06775203       1.03608298
H       -0.59336654      -1.24187176       1.34791345       0.69844421       0.14370851      -1.91073844
H        1.00812935      -1.08562823       0.33023585      -1.32004057       0.10088927       0.01657705
H       -0.13302231       0.85834353       0.26789266      -0.74253332      -0.38454909      -0.79684763
6
Lattice="50.0 0.0 0.0 0.0 50.0 0.0 0.0 0.0 50.0" Properties=species:S:1:pos:R:3:forces:R:3 config_type=methanol energy=-3142.4340392784143 pbc="F F F"
C       -0.13318718      -1.06409801       0.17605968       0.37333044       0.23437367       1.12146164
H       -0.30644899      -1.80569770      -0.65031221      -0.38613823       0.31830680       0.47730826
O       -0.61817355       0.22679452      -0.24205925       0.33321793      -0.93398867       0.31701076
H       -0.61554864      -1.40709484       1.21285217       0.69921368       0.26201867      -1.82393941
H        1.01795217      -1.10564748       0.31238132      -1.04902691       0.22756075       0.06036245
H       -0.52280454       0.81846864       0.53001989       0.02940308      -0.10827122      -0.15220370
6
Lattice="50.0 0.0 0.0 0.0 50.0 0.0 0.0 0.0 50.0" Properties=species:S:1:pos:R:3:forces:R:3 config_type=methanol energy=-3142.268060463345 pbc="F F F"
C       -0.08680923      -1.03954787       0.12846970       0.26369227      -1.46126123      -1.27856610