27
Lattice="50.0 0.0 0.0 0.0 50.0 0.0 0.0 0.0 50.0" Properties=species:S:1:pos:R:3:forces:R:3 energy=-17660.321436367645 dihedrals="_JSON [160.34, 73.35, 28.36]" pbc="F F F"
C       -1.69765400      -0.02933130       2.02962510       1.71437450       0.13863573      -2.46470871
C       -0.76398902       0.59132778       1.20651098      -0.17199300       2.33624752       1.17667100
C       -1.96631370       0.51460038       3.24825774      -2.66047792      -1.68716481       2.51609114
H       -2.21806086      -0.87472376       1.70795622      -0.75835814      -1.49474067      -0.53719410
C       -0.23122570       1.84410039       1.73423519       1.12356587       0.01975031      -2.39964084
O       -0.39594170       0.41701043      -0.09452635      -0.24654507      -1.26019338      -0.16840075
N        0.64954340       2.58039387       0.90291895      -1.89472450      -0.10882950       1.36328265
N       -0.58022464       2.39358919       2.85155415      -0.61734235      -0.17051479       1.91094039
H        1.17193001       2.06416301       0.26727246       0.88743043      -1.14226810      -1.36630893
H        1.16564545       3.32119513       1.32874686       0.02785206       0.31830961       0.58846314
C       -1.44125098       1.67886973       3.63186498       1.40125928       1.53133181      -0.53998390
H       -1.69147454       2.04004757       4.59839449      -0.06978038       0.84443810       0.77956510
H       -2.72717625       0.02306586       3.94350978       1.15609927       0.52200739      -1.07075691
C       -0.46609670      -0.92802820      -0.59571794       0.01589253      -0.27541261       1.39444070
C       -1.90800636      -1.41280476      -0.83706774       1.41965977       0.42207091       0.81932359
H       -0.01857087      -1.58105151       0.21457283      -0.26631227       0.32867640      -0.95463148
H        0.21093378      -0.91908306      -1.46036116      -0.44169656      -0.20030004      -0.07250409
C       -2.29036922      -2.67535523      -0.48022462      -2.18719999      -1.43351063      -0.55492033
C       -2.91744169      -0.54937050      -1.14723647      -3.00628343       1.68250452      -1.00420362
C       -3.66520507      -3.11910743      -0.64343866       2.89798334       0.20221970       0.44927003
H       -1.56273560      -3.35564346      -0.07401208       0.24773408      -0.45485066       0.09515269
C       -4.65134852      -2.28647791      -1.11661985       0.65506993       1.33437572       0.68303177
H       -3.83164087      -4.14090311      -0.34908635      -0.44836168      -0.37017332      -0.00496676
C       -4.27602477      -0.92044274      -1.29778880       1.35619170      -1.92521425      -0.12228984
H       -5.65821755      -2.68046032      -1.12272488      -0.32188192       0.30994543      -0.43251484
H       -4.94959123      -0.18274624      -1.67149053      -0.67068869       0.48151767       0.05694716
H       -2.81377065       0.52574782      -1.25353491       0.85853314       0.05114196      -0.14015428
27
Lattice="50.0 0.0 0.0 0.0 50.0 0.0 0.0 0.0 50.0" Properties=species:S:1:pos:R:3:forces:R:3 energy=-17660.269975289983 dihedrals="_JSON [164.94, 288.71, 339.22]" pbc="F F F"
C       -1.12520043       0.11053741      -1.70403578       0.35999757       0.77090563      -0.61749720
C       -1.25008583       1.33848112      -1.02973403      -0.08503955      -1.14975659       0.13918142
C       -0.90984217       0.09262310      -3.15115249      -0.23137277      -0.80990636       2.43662430
H       -1.15551527      -0.85224681      -1.18503637       0.07254448       0.34945799      -0.00920433
C       -1.27764401       2.51757220      -1.82046626       0.77750531      -0.13227456      -0.04778145
O       -1.34592394       1.57410433       0.36719684       0.33299982      -1.10895086      -1.09838472
N       -1.27382532       3.73288033      -1.15127391       0.24927795       0.34490883       0.45736021
N       -1.22361706       2.47789068      -3.14367443       0.48953481      -0.68612769      -0.77418889
H       -0.93249613       3.72159401      -0.15912936      -0.52986073      -0.02215331      -1.68910319
H       -0.96965403       4.51747509      -1.73928879      -0.20527636      -0.52772911       0.53746866
C       -1.00115724       1.27885592      -3.80990093      -0.73262258       1.45689622       2.56009619
H       -0.95406903       1.30038511      -4.85623085       0.16675500       0.44313551      -1.56677848
H       -0.66548586      -0.87703719      -3.62099760      -0.34192797       0.66953635       0.07614909
C       -1.65634201       0.40766193       1.11219582      -0.42987528      -0.71004962       0.45977522
C       -3.07542911      -0.03103899       0.89506389      -2.60370362      -1.88097818       0.24180000
H       -1.52939858       0.53845170       2.20397166       0.18770022       0.85481617      -0.49114055
H       -1.01023068      -0.44730819       0.89706292       0.44256539       0.09957637      -0.35882875
C       -3.55054395      -1.36558217       1.21167933      -0.63934807      -0.30559407      -0.05924227
C       -4.05773134       0.84372426       0.41980856       0.26359659       1.05228148      -0.48314410
C       -4.95485442      -1.76714953       1.16608870       3.14033928       1.32931796      -0.46822766
H       -2.81609132      -2.17626927       1.47353302      -0.56759074       0.92538138      -0.14250675
C       -5.86257057      -0.74994751       0.74867158      -0.17438398      -3.05309422      -0.01622856
H       -5.09891814      -2.87128699       1.31923600      -0.62191678       1.41521379       0.03832646
C       -5.40767185       0.45398936       0.27923825       0.08170276       0.80752167       0.70385898
H       -6.92616163      -1.02826413       0.63069328       0.50169429       0.33147042       0.15291885
H       -6.22804141       1.08554943      -0.06933623       0.70517896       0.51067156      -0.18480596
H       -3.71039363       1.87122336       0.12797904      -0.60847397      -0.97447678       0.20350348
27
Lattice="50.0 0.0 0.0 0.0 50.0 0.0 0.0 0.0 50.0" Properties=species:S:1:pos:R:3:forces:R:3 energy=-17660.57332279593 dihedrals="_JSON [183.11, 177.28, 14.93]" pbc="F F F"
C       -1.10638234       2.34630801       1.57764382      -0.38961633      -1.48242813       0.51187030
C       -1.90661203       1.57804617       0.73209067       0.68751770      -0.98051843      -0.76315748
C       -1.21792802       3.70652621       1.37616618       0.98727670       2.71285204       1.76384544
H       -0.52767550       1.92494820       2.46213452      -0.67222752       0.49560525      -1.52766373
C       -2.74837775       2.17908625      -0.26271790       0.66723270       0.90230626       0.36457613
O       -1.86232153       0.21047756       0.58333502       0.93584168      -0.57561674       1.44299973
N       -3.53487910       1.38059163      -1.06950594      -0.23654325       1.00569735       0.66621796
N       -2.79746804       3.50179501      -0.38225498       0.01544378       0.32538735      -0.08148211
H       -3.24494522       0.46517179      -1.27243817       0.53860313      -1.24147322       0.02853066
H       -4.06991248       1.81277634      -1.79515464      -0.01087808       0.55065243      -0.18475901
C       -2.01507799       4.27728629       0.43026698      -1.63369825      -2.89137025      -0.58885572
H       -2.25926993       5.30130364       0.46342765       0.12195760       1.38414095      -0.40771935
H       -0.76644415       4.46136906       2.06433986       0.07059775      -0.99036606      -0.36667511
C       -1.08642484      -0.52095941       1.59072141      -0.08600042       0.47009690      -1.55298906
C       -1.18167767      -2.01590340       1.33985363      -0.33576776       1.50452237       1.17630265
H       -1.49009115      -0.24223805       2.55528464      -0.11195507      -0.09948540       0.52764973
H       -0.00687870      -0.24280499       1.57266233      -0.55117458       0.27859452      -0.20159834
C       -0.84921141      -2.82111976       2.41635054       1.13122167      -0.03172402       0.19452174
C       -1.64626968      -2.54459944       0.14830000      -0.08685673       0.80471282      -0.97203904
C       -0.89988052      -4.20145522       2.28178603       0.02638862       1.14024352       1.06497549
H       -0.33879318      -2.44087532       3.32040558      -0.69475933       0.26487940      -0.39148281
C       -1.36907497      -4.71663060       1.12706852      -0.83963382      -0.77539850      -2.82475287
H       -0.61620345      -4.78547616       3.13807029       0.15834696      -0.59199661       0.10637421
C       -1.75164893      -3.90060048       0.01289241       0.22022125      -1.29069705       0.93732413
H       -1.39012581      -5.78531812       1.00408818      -0.19321451      -0.48268977      -0.06507004
H       -2.13215199      -4.30676742      -0.93437119       0.25744945      -0.17571958       0.49631142
H       -1.87811146      -1.88822949      -0.70947742       0.02422662      -0.23020741       0.64674510
27
Lattice="50.0 0.0 0.0 0.0 50.0 0.0 0.0 0.0 50.0" Properties=species:S:1:pos:R:3:forces:R:3 energy=-17660.42396957178 dihedrals="_JSON [176.11, 294.14, 309.14]" pbc="F F F"
C       -3.10132484       1.54566564      -1.78869073      -0.46942500      -0.52911028      -0.49595120
C       -1.99905082       1.96853047      -1.06500363      -0.22196112       1.12104961       0.30462155
C       -4.03164945       2.47850026      -2.29458059      -0.07631931       0.62744131       0.93256775
H       -3.36481289       0.49577658      -1.96042698       0.73840605       0.24783780      -0.10741659
C       -1.92078603       3.32818429      -0.61467506       0.74122487      -0.15226032      -0.11346960
O       -0.90142910       1.26483950      -0.73781308       0.66940673      -1.43387237       0.69254034
N       -0.84396027       3.76684065       0.21853027      -1.21468829      -1.78182216      -1.10889412
N       -2.83898897       4.17044249      -1.00887945      -0.81571805       0.59544428      -0.15936433
H       -0.08164461       3.06526553       0.21957146      -0.48565016       1.25039880       0.01749646
H       -0.65115295       4.76069874       0.15149604       0.19902238      -0.38337812      -0.05023197
C       -3.86189960       3.77097639      -1.81466631       0.35771898       0.63029214      -0.25877550
H       -4.51092305       4.61202528      -2.09463176      -0.00110342      -0.46847133      -0.04337766
H       -4.87718724       2.17171833      -2.94833374       0.67414944       0.28814112       0.63787770
C       -0.93244123      -0.12224597      -1.07249688       0.01167369      -0.06232214       0.21075905
C       -2.01659647      -0.90204496      -0.25583924       2.38478224       0.84852374      -0.80060941
H        0.13049697      -0.51813149      -0.92134497      -1.54088538       0.48673185       0.10168418
H       -1.13704604      -0.13956348      -2.15077303      -0.11000873      -0.54110241      -0.05868055
C       -2.81086202      -1.83746262      -0.83831729      -1.40286024      -1.72645876       1.55655665
C       -2.02994177      -0.75285050       1.11588644       1.32613125       1.55840388       2.03748718
C       -3.58468522      -2.65644748       0.01188684      -0.94773000      -0.51168282       1.38089502
H       -2.91043762      -1.99595631      -1.87708728       0.15687723       0.00127560      -1.30363302
C       -3.57177522      -2.58730363       1.42677368       1.57859340       2.43782712      -0.56211799
H       -4.33649434      -3.35562582      -0.34305324       0.22453104      -0.06740551      -0.72468592
C       -2.73635660      -1.57241871       1.99630318      -1.08950046      -0.25840033      -0.78170597
H       -4.24794416      -3.08328362       2.10833631      -0.13006181      -0.64613318      -0.33595988
H       -2.77673663      -1.34264037       3.07548219       0.23293272      -0.24855251      -0.57367598
H       -1.40986990       0.11401904       1.52298700      -0.78953805      -1.28239505      -0.39393617
27
Lattice="50.0 0.0 0.0 0.0 50.0 0.0 0.0 0.0 50.0" Properties=species:S:1:pos:R:3:forces:R:3 energy=-17660.1307029516 dihedrals="_JSON [196.3, 152.17, 5.81]" pbc="F F F"
C       -0.77534374       2.20035554       1.68183865       2.07549735       0.35276942       2.07636619
C       -1.67887123       1.51678278       0.97876300      -0.25053487      -0.85075679      -3.54193510
C       -0.78817802       3.58544584       1.72912258      -0.44842650       2.31895807       0.09392901
H        0.04005765       1.69570591       2.20474773      -0.18090608      -0.17743365      -0.09149328
C       -2.57652926       2.27986858       0.12381166       0.18079599      -1.06320524       0.70498204
O       -1.38922081       0.21606514       0.50523949      -1.66890390       1.42131606      -0.11414634
N       -3.47241202       1.59044666      -0.66569677       1.37695379      -1.76892288       0.93332981
N       -2.57395801       3.59501389       0.07204767       0.62409942       1.12048700       0.96251502
H       -3.12634116       0.61801963      -0.86767663      -0.84455606       1.56975377      -0.06684633
H       -3.81334345       2.16491331      -1.39694301      -0.42598525       0.18049606      -1.01664553
C       -1.70099466       4.24720215       0.90062752       0.52980881      -0.98887167       0.46897078
H       -1.63063525       5.33645426       0.94142447      -0.61999057      -0.08376494      -0.60275117
H       -0.09265199       4.23046558       2.35378760      -0.81016781      -1.21104137      -0.77606096
C       -0.84285250      -0.67748722       1.40150146       1.60395278       0.15807132       0.99410717
C       -1.19243429      -2.08557854       1.04608805      -1.18564730       0.69204798      -0.16759583
H       -1.17392073      -0.44263081       2.41805782      -0.40086545      -0.16692783       0.12961770
H        0.26110691      -0.52995473       1.48719485      -0.22271559      -0.17786167      -0.38931810
C       -1.06460604      -3.03868128       2.02872799       1.18310061      -1.57774988      -0.22540414
C       -1.88402790      -2.40368190      -0.14436153       1.21564996       1.11455249       1.43492648
C       -1.56102075      -4.31408871       1.81715415       0.02684652      -1.59627904       1.58017342
H       -0.33883458      -3.03207006       2.82899428      -0.11050862       1.08055915       0.57441477
C       -2.30454578      -4.60850483       0.70735070       0.08975148      -0.96051422      -1.26750946
H       -1.34989260      -5.14812782       2.56790075      -0.36105838       1.32075187      -0.93394322
C       -2.37186699      -3.65295197      -0.31766155      -1.10731868      -1.28609308      -0.34813533
H       -2.65399339      -5.64649403       0.57593858      -0.08065328       0.62975355      -0.12546115
H       -2.84758789      -3.82470397      -1.27849232      -0.21204861      -0.52741471       0.08240943
H       -2.00624289      -1.66697515      -0.91002439       0.02383025       0.47732023      -0.36849586
27
Lattice="50.0 0.0 0.0 0.0 50.0 0.0 0.0 0.0 50.0" Properties=species:S:1:pos:R:3:forces:R:3 energy=-17660.530926484593 dihedrals="_JSON [175.18, 293.36, 311.41]" pbc="F F F"
C       -3.18876459       1.45404626      -1.81901276       0.83276067       2.53195839       0.97721418
C       -2.07690059       1.99689111      -1.18567898       0.17874458      -0.97871305       0.12818186
C       -4.28206898       2.33298182      -1.99461437       0.42301074      -1.97360490      -1.26951373
H       -3.13183549       0.45402506      -2.12726964      -0.41639884      -1.41441771      -0.49963719
C       -2.05817360       3.33269994      -0.77460916      -1.59533661       3.50385197       1.01122211
O       -0.93327270       1.34635654      -0.80118002       0.63575291      -1.22733760      -0.16448971
N       -1.01530969       3.88747078      -0.04772702      -0.18415781      -0.28086020      -0.42144428
N       -3.11252167       4.18942262      -0.96307284       0.18737653      -2.15946003      -0.69978924
H       -0.28293329       3.23860557       0.19356838       0.16550648       0.41193637       0.26049445
H       -1.09454040       4.83776849       0.36699780      -0.05068672      -1.50344784      -0.67134332
C       -4.18597806       3.63121785      -1.59974927       2.05339016       0.01575600       1.23846642
H       -5.02743699       4.22653490      -1.70056463      -1.55985573       1.58734370      -0.31433710
H       -5.11197331       1.94988004      -2.59412426      -0.16079583       0.33759827       0.41655791
C       -0.76956213      -0.08281219      -1.02624686      -0.59347143       0.95855232       0.63955979
C       -1.73266351      -0.92317407      -0.19949854      -0.03817898      -0.45673529      -1.77397897
H        0.22937874      -0.30430988      -0.64722341       0.23703377       0.24011299      -0.24285200
H       -0.80827020      -0.29336410      -2.09810825      -0.10809905      -0.12195862      -0.10028861
C       -2.43925008      -1.98624669      -0.81198374      -1.39629963      -0.01986084       3.67111302
C       -1.85404942      -0.65850692       1.15178017      -0.78393781      -1.18549893      -0.52179848
C       -3.30212316      -2.77686729       0.02655985       0.04688269      -0.17389994      -0.93034084
H       -2.48829997      -2.14723679      -1.84813667       0.45641862      -0.23530413      -1.48133017
C       -3.47246462      -2.45100287       1.38553742       1.53432552      -0.01252180      -1.72165237
H       -3.84141236      -3.66032641      -0.42332192       0.52012188       1.09473125       0.50155646
C       -2.71386225      -1.43630359       1.90996472       0.05680338       1.60691793       1.87299165
H       -3.98729212      -2.99644811       2.11373177      -1.37930215      -1.22383862       0.49877341
H       -2.85440169      -1.16538554       2.99157058       0.25409186      -0.38217087      -1.01510468
H       -1.30142815       0.12939622       1.57536892       0.68430081       1.06087118       0.61176942
27
Lattice="50.0 0.0 0.0 0.0 50.0 0.0 0.0 0.0 50.0" Properties=species:S:1:pos:R:3:forces:R:3 energy=-17660.46356495447 dihedrals="_JSON [151.32, 309.49, 323.94]" pbc="F F F"
C       -2.89675462       2.23432428      -1.44268657       2.41208072       0.88964086       3.25599460
C       -1.76061428       2.12554124      -0.61881404      -1.09669066       0.40089541       0.04693074
C       -3.88388115       3.06198208      -0.94511978      -1.42358635      -0.28929912      -1.68562317
H       -2.92473189       1.85453772      -2.39512800      -0.22100637      -1.47596905      -2.16983303
C       -1.61946908       2.87236502       0.59063401      -2.02946729       0.82698036      -1.03595088
O       -0.69514722       1.32684367      -0.77874952       0.27066535      -2.52094155      -1.47312152
N       -0.42121757       2.84850478       1.21396613       0.91288702      -0.00774770       0.64522832
N       -2.60095939       3.68103738       1.01312115       0.21266890      -0.37765807      -0.88657517
H        0.17888533       2.05943457       1.11192970       0.08512113      -0.55086260      -0.57262971
H       -0.35578277       3.21649226       2.13274203      -0.40715880       0.66009999       0.74131940
C       -3.69204416       3.74147749       0.19806628      -0.00404713       0.74898743       2.65133084
H       -4.51821486       4.32935908       0.59967834       0.14522439       0.15623162      -0.01817748
H       -4.84500750       3.12127805      -1.47289740       0.37552703       0.24683915       0.13971877
C       -0.91238598       0.07716536      -1.52869937       0.04920316       1.48566764      -0.80197198
C       -2.07976332      -0.81480043      -1.11012775       1.23773075       0.85479660       1.01564464
H        0.08211555      -0.35125398      -1.47963793       0.10363409      -0.63190358       0.24181126
H       -1.06264725       0.32007012      -2.61968615       0.09836334       0.01000225       0.87471761
C       -2.70246929      -1.54061159      -2.08495661       0.35232882      -0.49855946      -0.44476165
C       -2.47184045      -0.97577169       0.22918897       0.05903502       0.29368747      -1.62543369
C       -3.73894366      -2.38416138      -1.78122527      -1.26001069      -0.87326193      -0.45633533
H       -2.27350322      -1.62641022      -3.06255580       0.13970973       0.47757514      -0.76323580
C       -4.26002376      -2.42151040      -0.49216237       0.00670161      -1.12137696      -0.05772232
H       -4.13644159      -3.02347526      -2.60456779       0.08406045       0.47592569       0.84583864
C       -3.58020623      -1.72152985       0.52816448      -1.05870191      -0.99008840      -0.26130917
H       -5.06272785      -3.18451735      -0.32333606       0.56396047       1.08694128       0.32980415
H       -3.90937001      -1.82678997       1.54967680      -0.07506624      -0.00878512       0.32166513
H       -1.87451025      -0.51310069       0.96251033       0.46683348       0.73218268       1.14267680
27
Lattice="50.0 0.0 0.0 0.0 50.0 0.0 0.0 0.0 50.0" Properties=species:S:1:pos:R:3:forces:R:3 energy=-17659.741931163175 dihedrals="_JSON [153.76, 195.49, 283.43]" pbc="F F F"
C        1.60821815       1.16755296      -1.02526680       1.17183562      -2.01864847      -0.78537019
C        0.33438528       1.60640538      -0.70571896       2.23064520       0.92398754      -0.27066147
C        2.53184438       1.97273579      -1.76088063      -2.58758761       1.84566537       0.00720254
H        1.89601358       0.04018421      -0.87625763      -0.60764632       2.33839492      -0.13743695
C        0.10403403       2.99234466      -0.84549068      -0.42849567       0.33497457      -1.38506347
O       -0.65776218       0.84369863      -0.25885968      -0.96545337      -0.55179764       0.77510524
N       -1.05638086       3.51730778      -0.40392855      -1.92812274      -1.85697327       2.16474055
N        0.83341284       3.76463508      -1.63564662       1.89682062      -0.42949040      -0.60587525
H       -1.57622064       2.96024807       0.29367783       0.50521946       0.50581370      -0.79776286
H       -1.34760444       4.46063492      -0.44701765       0.44944910       1.01243506      -0.46007246
C        1.99533738       3.27439946      -2.15449533       0.55811053      -1.66756448       1.29928208
H        2.48785899       3.95882305      -2.86269377       0.03492163      -0.45175283       0.36507714
H        3.47072331       1.50478091      -2.03405846       0.12151039       0.51307050      -0.31150029
C       -0.61782237      -0.49878654      -0.65725947      -0.32102934      -1.30854626      -0.31859057
C       -1.95730623      -1.12252700      -0.40745282       0.83310790       1.09828757      -0.70569348
H        0.17912093      -1.09765534      -0.15712524      -0.37871712       0.54841781       0.03211154
H       -0.46811022      -0.62605149      -1.71997859       0.64486316       0.55948337      -0.73419934
C       -2.88235116      -1.35795182      -1.39700613      -0.67019839      -1.92696439       2.30803219
C       -2.21682766      -1.42729477       0.87693101       2.54344167      -0.34013945       3.19028472
C       -4.02887042      -2.08585984      -1.00048368      -2.14894889       0.78778699      -0.33788156
H       -2.50473944      -1.23992308      -2.35429304      -0.20538127       0.48641932      -2.36884097
C       -4.30044074      -2.38725767       0.36560323       0.19795389      -0.98283962      -1.12929840
H       -4.89834406      -2.24089934      -1.72562277       1.51222063      -0.07169379       0.78925421
C       -3.27793900      -2.12970517       1.31135445      -3.68399311      -0.41093836      -0.40918863
H       -5.24607906      -2.98071211       0.59791670       1.37099112       1.02929639      -0.11631246
H       -3.49978732      -2.34060608       2.34744020       0.42748214      -0.18156947       0.29221840
H       -1.39196627      -1.27011050       1.60529127      -0.57299925       0.21488530      -0.34956027
27
Lattice="50.0 0.0 0.0 0.0 50.0 0.0 0.0 0.0 50.0" Properties=species:S:1:pos:R:3:forces:R:3 energy=-17660.5542200087 dihedrals="_JSON [181.87, 67.73, 39.28]" pbc="F F F"
C       -0.42191680      -0.89442727       0.94550566       0.26204378       0.94843537       0.09733447
C       -0.46215566       0.46874465       0.88226978      -0.03082588       0.86031390       0.53364979
C        0.25341595      -1.57168192       1.97931223      -0.10195438      -0.07257866      -0.84630105
H       -0.92602733      -1.35769123       0.15816941      -0.65257791      -1.54133117      -1.07886819
C        0.13145695       1.14532399       1.99070262      -0.81814345      -0.83571601      -0.23718866
O       -1.07100787       1.31339873      -0.06049856      -0.07365454      -1.61609172      -0.17250620
N        0.02751818       2.48687675       1.98071555      -0.51186248       0.85918126      -0.38747662
N        0.61848913       0.50735755       3.03517296       1.25366360       0.78804004       0.25573859
H       -0.16229506       2.86389305       1.07259366      -0.12808702       0.34859315      -0.20643648
H        0.59755460       3.03961427       2.56915313       0.64088918       0.29802953       0.74544161
C        0.80826948      -0.81138022       2.98587822      -0.54678990      -0.93019468       0.21389286
H        1.34294529      -1.28635646       3.82879442      -0.30131134       0.36097846      -0.36161502
H        0.31286044      -2.64838327       1.85653955       0.22718569      -0.05463138       0.52778340
C       -1.73683827       0.68512016      -1.20279081       1.21098823      -0.79171484       0.87449247
C       -2.98421813      -0.10708036      -0.85957034      -0.81741601       1.00746539       0.65502255
H       -1.09306186      -0.10810936      -1.64506896       0.34514033       0.80934990       0.04852198
H       -1.80094096       1.51280300      -1.90769631      -0.53478713      -0.02088501      -0.11307026
C       -3.20241940      -1.32708042      -1.50679091       2.08325216       0.94490500      -0.64023050
C       -3.92044120       0.34063113       0.11681895       1.76683689       0.56794722      -2.27115053
C       -4.24501918      -2.10033833      -1.13636964      -2.07074820      -1.73106007       0.47138497
H       -2.48335037      -1.66292031      -2.28667410      -0.50348737       0.16174714       0.55206117
C       -5.16193384      -1.71330174      -0.15667213       0.11800781      -0.40273911      -1.20364048
H       -4.45807147      -3.07707291      -1.56787969       0.44186514       0.04417651      -0.34009565
C       -5.00837596      -0.44997343       0.37963215      -0.74976737      -0.05644196       2.00650454
H       -5.99403432      -2.42188248      -0.01218730       0.25631394       0.74283093       0.56046213
H       -5.62935901      -0.11137119       1.19915692      -0.62398609       0.03032922      -0.09935100
H       -3.79746208       1.38159831       0.45867980      -0.14078766      -0.71893842       0.41564012
27
Lattice="50.0 0.0 0.0 0.0 50.0 0.0 0.0 0.0 50.0" Properties=species:S:1:pos:R:3:forces:R:3 energy=-17660.679557885476 dihedrals="_JSON [90.74, 188.89, 308.77]" pbc="F F F"
C        0.76082263       1.12391652       1.53687846       0.29637609      -1.65074335      -0.66527983
C       -0.59160865       0.85419242       1.66119248      -0.80084590       1.35876573       1.19736214
C        1.29592150       2.39174074       1.83121182      -0.55525200      -1.29240842      -0.22773703
H        1.38558435       0.26384220       1.20273191      -0.26642653       0.82327215       0.05925391
C       -1.41620556       1.88280200       2.24532319      -0.58376307       0.24612017      -0.60890580
O       -1.24143034      -0.31480041       1.33858011       0.49837364      -0.28260638      -0.10093630
N       -2.81820452       1.63752551       2.39527475       2.97946047       0.41159109      -1.19144167
N       -0.91170908       3.08666136       2.53966568      -0.51433911      -1.05231994      -0.14549730
H       -2.96107343       0.69393174       2.66944884      -0.67428005      -0.71208738       0.34895967
H       -3.31262273       2.36937144       2.84961563      -0.35662506       0.38979145       0.68413114
C        0.39795106       3.29286005       2.30694397      -0.81322323       1.70709053       0.98498606
H        0.68951835       4.29869240       2.62484686       0.30311721      -0.13546911      -0.30075078
H        2.33283688       2.62520164       1.68997157       0.42944998       0.05496696       0.01485419
C       -1.72508118      -0.25949631      -0.00990274       0.54605805      -0.04797511      -0.51458260
C       -2.63399499      -1.44368871      -0.32601761       2.09278985       1.10892978      -0.08588600
H       -0.79991786      -0.25040361      -0.68943772      -1.30677795       0.01031326       0.60813059
H       -2.28841275       0.67463197      -0.13241526       0.12457107       0.05872346      -0.17141681
C       -3.73499538      -1.25080500      -1.11887021      -1.23867885       1.45416101       0.74788003
C       -2.15318361      -2.70631218      -0.03551565      -1.68084550      -1.76081292      -0.43903731
C       -4.47439076      -2.34356670      -1.52162934      -1.44063584       0.20076664      -1.36173248
H       -4.10900285      -0.20590151      -1.23035563       0.29744590      -0.88274726      -0.35878760
C       -4.09573310      -3.62312309      -1.25658114       2.83606403      -0.10341880       1.86500864
H       -5.38065590      -2.27881819      -2.13234576       0.17452573       0.64043864       0.11110101
C       -2.91927262      -3.82148360      -0.45221540      -0.36416811       0.13928908      -0.86976473
H       -4.61534755      -4.42947400      -1.70473228      -0.55005171      -0.95808602      -0.10392586
H       -2.60375209      -4.86047366      -0.27335010       0.07448352       0.51370744       0.12879584