15
Lattice="50.0 0.0 0.0 0.0 50.0 0.0 0.0 0.0 50.0" Properties=species:S:1:pos:R:3:forces:R:3 dihedral_angle=5.728198750189656 config_type=600K_MD energy=-9390.791202754173 pbc="F F F"
C       -0.95565085      -0.43663073       0.52263067      -0.12091059      -1.67741573       2.16469378
C       -0.14845610      -0.13840511      -0.51944896       0.49449243       0.42929230      -0.37591865
C        1.03678803       0.66749430      -0.37795584       2.44991171       0.97178242      -2.77375227
O        1.56608505       1.12298993       0.64381158      -1.25819590      -0.38874545       1.77254939
C        1.72353347       1.25098547      -1.68122895       1.09807775      -0.26932719       1.01722402
O       -0.58588117      -0.00570973       1.73651535      -0.58776490       0.50667306      -0.80603287
C       -2.10724028      -1.41173220       0.49562092      -0.33113720       1.28207756      -3.23000250
H       -0.40126464      -0.61905880      -1.42856030      -0.13031704      -0.21365934      -1.60724379
H        1.42218356       0.83481437      -2.60256611      -0.93010310      -0.87493525      -1.62623858
H        2.85230520       1.46977591      -1.84063628      -1.11768610      -0.90660112       1.21378943
H        1.34820845       2.25209941      -1.61806817      -0.68892898       1.39821323      -0.28567127
H        0.16534206       0.59512312       1.41349926       0.79630227       0.21984248       1.51281480
H       -1.91607872      -2.42047517       0.76739057       0.76664439      -1.32869701       1.28819735
H       -2.40794491      -1.62447150      -0.60998491       0.16899072       0.78885207       1.27822562
H       -2.95978234      -0.99493307       1.02190736      -0.60937545       0.06264796       0.45736554
15
Lattice="50.0 0.0 0.0 0.0 50.0 0.0 0.0 0.0 50.0" Properties=species:S:1:pos:R:3:forces:R:3 dihedral_angle=14.562502706164953 config_type=600K_MD energy=-9389.921838488948 pbc="F F F"
C       -0.53042679      -0.75776186       0.27713182      -0.95391763      -1.49130600       0.03473475
C       -0.26310417       0.30994383      -0.52111443      -2.66975417      -2.17528789      -1.24707544
C        0.74677698       1.15433487      -0.12261269      -4.98018766       5.31721187      -5.31807108
O        1.49723229       0.86618201       0.68183613       7.71725463      -1.73019890       7.23750820
C        0.60150462       2.53925132      -0.79447660       2.39809402       0.72125795       2.69236376
O        0.16641017      -1.13985603       1.34407228      -4.34837990      -3.31946158      -0.49249466
C       -1.70191400      -1.73982961      -0.06243525       1.11202014       1.72720714      -0.90962456
H       -0.94545422       0.52969304      -1.35626390       0.04183091      -0.00144902       0.09856847
H       -0.28504059       3.08514060      -0.71096133      -2.78009866       0.28792660       0.18436139
H        0.77476182       2.28927736      -1.77048420       0.48373319      -0.25708311      -3.65016139
H        1.27407689       3.37951362      -0.49474292       0.71431454      -0.79980631       0.10514211
H        0.93638556      -0.77689151       1.67023494       3.20721313       2.65038124       0.12783722
H       -2.47960656      -1.16985227      -0.66754249       0.61959756      -0.71015498       0.48798702
H       -2.13804904      -2.23840508       0.79153544      -0.31134599      -0.13104794       0.84947080
H       -1.22090608      -2.52747904      -0.67717929      -0.25037412      -0.08818906      -0.20054657
15
Lattice="50.0 0.0 0.0 0.0 50.0 0.0 0.0 0.0 50.0" Properties=species:S:1:pos:R:3:forces:R:3 dihedral_angle=17.653693682229786 config_type=600K_MD energy=-9390.78680872013 pbc="F F F"
C       -0.82133104      -0.58047508       0.35112904      -2.29543494      -1.05940831       2.89394358
C       -0.21474135       0.68457559       0.56916527       0.78132257      -0.76737039      -1.17305728
C        0.94901584       0.99646064      -0.04755637      -1.07526289       0.22587922      -2.01674560
O        1.30920623       0.25476342      -1.11892792       1.32268129       0.74621585       0.05845568
C        1.70421843       2.23684857       0.35795335      -3.96924297       0.04371628      -3.04640575
O       -0.72382840      -1.39730889      -0.56193098       0.93705523       0.01864633      -1.19734651
C       -1.70456299      -0.95733728       1.62063362       0.87731986       0.04675910      -0.66485013
H       -0.55348520       1.27652483       1.35637170      -0.70644006       1.16217573       1.77608499
H        2.01184550       2.86349543      -0.45729398       0.12853071       0.43972453      -1.40965824
H        2.55015699       1.90063903       0.70883692       5.51811311      -1.68833830       2.93332681
H        1.14713115       2.88790228       0.99470862      -0.65262316       0.30838070       1.17334827
H        0.66898326      -0.49720640      -1.35161783      -0.17495960       0.52584600       1.01306002
H       -2.08039319      -1.99638726       1.53393244      -0.11144268       0.17392703      -0.01483691
H       -2.51591245      -0.21105602       1.68509720      -0.29423685      -0.07567193       0.10556249
H       -1.08376052      -0.84947008       2.55331076      -0.28537962      -0.10048185      -0.43088142
15
Lattice="50.0 0.0 0.0 0.0 50.0 0.0 0.0 0.0 50.0" Properties=species:S:1:pos:R:3:forces:R:3 dihedral_angle=12.783028924349418 config_type=600K_MD energy=-9390.960236899069 pbc="F F F"
C       -0.96896303      -0.14437158      -0.46409688       0.03937572      -0.44369647       0.46011872
C        0.08546621      -0.52635051       0.40310769      -0.23424290      -4.37882271       0.15475764
C        1.13089417       0.26335437       0.72134066       0.99980486      -2.75751975       1.52475616
O        1.16929798       1.48706599       0.47484193      -0.33435614       5.59521178      -2.55716778
C        2.29646044      -0.18307980       1.57392738       0.11167553       0.92699929      -1.28424026
O       -0.96218691       0.94975389      -1.04100202       0.16964651       1.57370897      -0.63652753
C       -2.16499010      -1.03948104      -0.61997543      -1.04021541       1.09208673       0.72804493
H        0.16571069      -1.66985531       0.65702878      -0.19825779       1.96220242      -0.18272701
H        2.16202400       0.44302513       2.49325760       0.90219680      -0.41253817      -0.14631918
H        3.27038531      -0.08314704       0.96600989      -0.91149307       0.49586812       1.02878586
H        2.18894934      -1.23318691       1.72462595      -0.12259957      -1.33089375       0.79022751
H        0.46271320       1.77568798      -0.25810140       0.44582518      -1.18532424       1.18818622
H       -2.95071151      -0.27249638      -0.42246121      -0.29597495      -0.17224247      -0.31545609
H       -2.35943848      -1.75698945       0.22475288       0.55894214      -0.29446589      -1.01834402
H       -2.29474427      -1.28921060      -1.69202499      -0.09032691      -0.67057387       0.26590483
15
Lattice="50.0 0.0 0.0 0.0 50.0 0.0 0.0 0.0 50.0" Properties=species:S:1:pos:R:3:forces:R:3 dihedral_angle=356.76389936602993 config_type=600K_MD energy=-9390.992167096905 pbc="F F F"
C       -0.68734204      -0.68827107       0.47592672      -2.63885905      -1.36902956       0.73601848
C        0.46740139      -0.03110773       0.80674661       1.94462420      -0.12571654       1.40584041
C        0.96257867       0.92681086      -0.03373206       0.94277847       0.03408039       0.19824578
O        0.39994156       1.20904479      -1.20205644       1.54832634       1.51982522       0.24195491
C        2.24476315       1.69469367       0.37017430      -1.32510400      -1.84066550      -3.26608307
O       -1.26588020      -0.44552247      -0.57612400      -1.71891651       0.56501131      -3.13087984
C       -1.44632631      -1.62454887       1.37113825       2.38728438      -1.50601449       0.31815350
H        0.99423362      -0.40085984       1.69222564       0.28444769       0.53382412       0.25625568
H        2.64087624       1.26563518       1.30252767       0.12081629       0.45963128       0.06973900
H        1.82795672       2.71011533       0.33418972       0.91683085       0.70111687       0.33012606
H        2.88060722       1.42139719      -0.57957904      -0.27602374       1.04775176       1.63289460
H       -0.43637890       0.66762526      -1.30945928      -0.51329902      -0.97897032       0.66160365
H       -1.02810458      -1.68248439       2.36411777      -0.24214430       0.82466070       1.43989164
H       -1.13425890      -2.67043581       1.15910483      -0.24952689      -0.19168818      -0.90340834
H       -2.50849530      -1.57461303       1.27482928      -1.18123470       0.32618295       0.00964754
15
Lattice="50.0 0.0 0.0 0.0 50.0 0.0 0.0 0.0 50.0" Properties=species:S:1:pos:R:3:forces:R:3 dihedral_angle=351.9910857529385 config_type=600K_MD energy=-9391.254815698047 pbc="F F F"
C       -0.54678085      -0.78728556       0.71817751      -0.74933290       2.78220501      -2.67505710
C        0.24265828       0.43269861       0.82506530      -0.95573378      -0.31261421       2.40790712
C        0.65896018       1.12627509      -0.26355379       2.87137260       0.51255011       0.74609815
O        0.51051499       0.66647028      -1.45882681      -0.44692438      -0.22036156      -2.36196965
C        1.66405901       2.29133695      -0.12128796      -1.37001804      -1.15542600      -0.18242170
O       -1.06598082      -1.10611384      -0.38492701       0.69252574      -0.37319122      -0.49572430
C       -0.86895737      -1.51960884       1.88546893      -1.02034780      -2.91389557       2.77259368
H        0.32965781       0.86905371       1.86052821       0.39568651      -0.34216566      -0.79229070
H        2.66023131       2.17836925      -0.58426292      -0.19763180      -0.33501973      -0.31918541
H        1.78535916       2.46463087       0.92901280       0.29954009       0.26018070       1.18797569
H        1.14043376       3.14236588      -0.51142173      -0.18013649       1.30123183      -0.71181415
H       -0.12159575      -0.12670162      -1.43396117      -0.24011163       0.02820676       0.51639105
H       -1.56415049      -1.07190223       2.64537040       0.42801951       0.50455863      -0.41057895
H        0.09651923      -1.72074701       2.42222017      -0.51535248      -0.34543556       0.06504027
H       -1.45144914      -2.46066338       1.59151195       0.98844484       0.60917647       0.25303598
15
Lattice="50.0 0.0 0.0 0.0 50.0 0.0 0.0 0.0 50.0" Properties=species:S:1:pos:R:3:forces:R:3 dihedral_angle=11.406338978673043 config_type=600K_MD energy=-9390.981195251361 pbc="F F F"
C       -0.67235948      -0.17104842      -0.78668140       0.32960768      -0.99420453      -3.36537296
C       -0.58626163       0.15521008       0.53649172      -0.19291355       0.58917628       2.02007118
C        0.61210896       0.51982874       1.09587560       0.05550576       0.55627917       2.33223176
O        1.75227298       0.81498609       0.50354829       0.19602079      -0.58874877      -1.52805316
C        0.80820996       0.54081681       2.61061498       1.49893250      -1.14116777      -1.03348473
O        0.37478232      -0.16990210      -1.47687731       0.32952414       0.17578996      -1.00197468
C       -2.00656827      -0.63961346      -1.40375447       1.03208220       1.93023066       0.23388464
H       -1.49528010       0.02134465       1.10416528      -0.25640680       0.04720281       0.96235696
H        1.08982996      -0.55926524       2.88001779       0.22328317       1.75233073       0.00032006
H        0.02390130       0.81911840       3.24437973      -2.69120140       0.06211438       0.76962468
H        1.47480616       1.37569481       2.91379830       1.03216624      -0.71158029      -0.28899517
H        1.67207575       0.55395439      -0.49733818      -0.73491438       0.07439596       0.86978969
H       -2.75372216       0.18825745      -1.12595616       0.44595497      -0.90215881      -0.99915710
H       -2.28610772      -1.49340294      -0.82773379      -0.62790957      -1.33555012       0.59688886
H       -1.78890409      -0.92350421      -2.46719069      -0.63973174       0.48589034       0.43186997
15
Lattice="50.0 0.0 0.0 0.0 50.0 0.0 0.0 0.0 50.0" Properties=species:S:1:pos:R:3:forces:R:3 dihedral_angle=0.480485541807895 config_type=600K_MD energy=-9390.688224450381 pbc="F F F"
C        1.06496797       0.11103696      -0.60737311      -1.41703522      -1.10104781      -0.64436806
C       -0.30753092      -0.22884868      -0.42196772      -1.07019597       1.19774223       0.85725237
C       -1.01234338       0.22675287       0.66590376       1.37559241      -0.35812418       1.68413601
O       -0.50798607       1.03307397       1.65300932      -3.08979205      -1.13212951      -0.46873114
C       -2.19511187      -0.54952875       1.07199544       0.15163121      -4.29034534      -2.75164561
O        1.67401500       0.75402436       0.22368765       1.36385135       1.98211121       1.85130563
C        1.71510719      -0.40164592      -1.79751253       2.21975616      -1.26730515      -1.57420480
H       -0.93163744      -0.93189451      -0.93726536       0.15701617      -0.72922386      -1.25783881
H       -2.52135018      -0.36065567       2.01591179      -1.38543121       1.13787452       3.34498611
H       -1.93296317      -1.75836831       1.12726899      -0.02050585       2.58913097       0.05409574
H       -3.04428566      -0.69801374       0.36076039       0.16771996       0.89363678       0.03115292
H        0.34968535       1.30263004       1.35548936       2.45979989       0.44759355      -0.88693968
H        1.44083473       0.19412422      -2.67894121      -0.58621722      -0.10953105      -0.43218150
H        1.56499853      -1.52018637      -1.97268193      -0.07093404       1.07285197      -0.01211668
H        2.81321176      -0.18904370      -1.73355826      -0.25525558      -0.33323433       0.20509748
15
Lattice="50.0 0.0 0.0 0.0 50.0 0.0 0.0 0.0 50.0" Properties=species:S:1:pos:R:3:forces:R:3 dihedral_angle=3.0077411410330734 config_type=600K_MD energy=-9391.129328951642 pbc="F F F"
C        1.31113010       0.12747939       0.02201054       1.99118191       0.16838869       1.43669208
C        0.02414151      -0.23835558      -0.49383821       0.83573613       1.08042495       0.06121239
C       -1.11317787       0.18083969       0.09047499      -3.15695368      -1.72144488      -0.81575360
O       -1.26203397       0.96246709       1.09507913       0.44608049       1.88957110       2.12928554
C       -2.45921182      -0.47356684      -0.26002030       0.52488526       1.86031392       0.86982460
O        1.59171086       0.80984915       1.05011946      -1.72126784      -0.08143024      -0.70811265
C        2.46420024      -0.48555002      -0.69520477       1.51187819      -1.82694872      -0.72616542
H       -0.08744559      -0.68795650      -1.46032925       0.18997533      -0.89892820      -0.65832959
H       -2.81221697      -1.00909100       0.63880739      -0.27684557       0.14164601       0.02789484
H       -2.23847232      -1.15313071      -1.00568130       0.35145134      -2.24064725      -2.01331270
H       -3.22228065       0.19868710      -0.70962208       0.03015970       0.21461416       0.56664529
H       -0.37573094       1.32505026       1.35350455       0.50593954      -0.11857871       0.12537239
H        2.42922562      -0.16714926      -1.73831208       0.07817987       0.30585611      -0.73197430
H        2.39402839      -1.62274990      -0.80240779      -0.27463846       0.85415072       0.27062797
H        3.52207835      -0.31931804      -0.32558428      -1.03576222       0.37301234       0.16609317
15
Lattice="50.0 0.0 0.0 0.0 50.0 0.0 0.0 0.0 50.0" Properties=species:S:1:pos:R:3:forces:R:3 dihedral_angle=7.507227838963893 config_type=600K_MD energy=-9391.005429945066 pbc="F F F"
C        0.69013063       0.73686359      -0.65501374       1.77844166       1.49042028      -2.13970010
C       -0.54106608       0.48475838      -0.20808559      -0.54175282      -1.13675922       1.71925081
C       -0.70754781      -0.42680409       0.91032321      -0.03292839      -0.14413573      -1.53049959
O        0.27382821      -0.86138901       1.53868492       0.25963857      -0.63132738       0.33528660
C       -2.10218482      -0.82612303       1.21980147      -0.80362808      -1.16766359      -3.35282498
O        1.75346200       0.05312923      -0.28349638       0.87504640       0.86501243      -0.90399723
C        0.94098342       1.92151654      -1.61612546       1.70760276      -2.93673763       1.14202284
H       -1.32679939       1.04853658      -0.62644382      -1.50265188       0.71602281      -0.49222779
H       -2.30430153      -0.34792008       2.10066308      -1.35150757       1.20499202       3.19571581
H       -2.35492928      -1.89396335       1.20258681       0.72806550      -0.57891965       0.80889304
H       -2.82852826      -0.53721235       0.40968959       0.45312892       0.69643077       0.46860665
H        1.42820982      -0.54085023       0.42989101      -0.33152496      -0.63813355       1.20101672
H        2.00324399       2.12324821      -1.54681392       0.84142757       0.16320054      -0.32419163
H        0.46899373       2.73410864      -1.20745524      -1.66561425       2.69537272       1.30139942
H        0.62737477       1.85135236      -2.63096893      -0.41374343      -0.59777482      -1.42875057
15
Lattice="50.0 0.0 0.0 0.0 50.0 0.0 0.0 0.0 50.0" Properties=species:S:1:pos:R:3:forces:R:3 dihedral_angle=353.5027751368037 config_type=600K_MD energy=-9391.087630306529 pbc="F F F"
C       -0.95882128       0.71802928      -0.06528792      -0.79416689      -0.46066267       3.03320538
C        0.29036369       0.41566602      -0.50552381      -0.16591345       0.07097052      -0.66236432
C        1.20024158      -0.40233874       0.17596077       0.06111788      -1.29543935       2.06287796
O        0.92535553      -0.82327505       1.35265146       1.00148197       0.22013147      -1.45197111
C        2.53992034      -0.64161026      -0.53347175       0.47827507       0.58498576      -0.45819168
O       -1.45314344       0.27954706       1.15834607      -0.60812388       1.67718008      -2.42201421
C       -1.94408706       1.51078594      -0.80097701       1.01858444      -0.61755739      -2.77878467
H        0.64525536       0.65407472      -1.48771906      -0.23724239       0.83273657      -1.07739718
H        2.64830609      -1.25438501      -1.50534401      -0.67109086       0.20036989       1.33670748
H        3.22413398      -0.96535118       0.25818091       0.46426904      -0.45638495      -0.04550107
H        2.91044012       0.36591318      -0.89331695      -0.19922316      -0.40802193       0.37419075
H       -0.71485893      -0.10491123       1.63542026       1.72090043      -1.17183813       0.57153036
H       -2.18976792       0.73038097      -1.63298413      -0.04757532       1.64908045       0.40164256
H       -1.50431930       2.50328702      -1.19078982      -0.68769798      -1.28939118       0.20290160
H       -2.82567401       1.62960068      -0.22606347      -1.33359489       0.46384088       0.91316817
15
Lattice="50.0 0.0 0.0 0.0 50.0 0.0 0.0 0.0 50.0" Properties=species:S:1:pos:R:3:forces:R:3 dihedral_angle=2.4145808239880395 config_type=600K_MD energy=-9390.749458059478 pbc="F F F"
C       -0.08477416       0.09829043       1.30523786       0.78204971       2.05044179       1.44135352
C        0.56337849      -0.39008767       0.19669305       0.58474942      -2.24508502       2.04770414
C        0.22861873      -0.10665576      -1.13619067       1.49165117       0.73877452       0.02149435
O       -0.69645431       0.67785059      -1.25095527      -2.56427126       1.74109920      -1.81435398
C        1.19376596      -0.49058018      -2.23393794      -2.93455076      -1.82434048      -0.52115222
O       -0.80232278       1.22809397       1.31810772      -1.20688988      -0.44427157      -0.64327886
C        0.24006496      -0.30091211       2.72731247      -0.92326505       3.05124146       1.15509252
H        1.28975000      -1.14081995       0.49035067       0.44065763      -0.65625138      -0.24467403
H        1.90956164       0.22917366      -2.34146920       2.05561613       3.22946314      -0.56614506
H        0.77980599      -0.75109689      -3.24271873      -0.05691491       0.18400101       0.57102025
H        1.82071818      -1.25500315      -1.86868288       0.80843079      -2.06016773       0.48235312
H       -1.11792487       1.35759826       0.37178122       0.47570820      -0.08735792      -0.08901480
H       -0.67698322      -0.31500876       3.38981523       0.16663130      -0.01196087      -0.75257788
H        0.86982502       0.51047995       3.32453065      -0.59089908      -1.43776555      -1.36148967
H        0.62141353      -1.26748330       2.75299436       1.47129659      -2.22782062       0.27366860
15
Lattice="50.0 0.0 0.0 0.0 50.0 0.0 0.0 0.0 50.0" Properties=species:S:1:pos:R:3:forces:R:3 dihedral_angle=359.6752717748625 config_type=600K_MD energy=-9390.899494095265 pbc="F F F"
C        0.83223929      -0.03903548       1.07956576      -2.13933114      -1.03227352       2.97554333
C        0.63527495      -0.25991826      -0.22291751       0.10226101       0.64994024      -1.73826911
C       -0.46469364       0.33971659      -0.94963994      -2.36593099      -0.73821970      -0.33525792
O       -1.33419723       1.10552509      -0.45552810       1.11017416      -0.36646575       0.23431185
C       -0.73782844      -0.15709822      -2.37269845       0.92883327       0.01260704       0.10069986
O       -0.18172944       0.48875770       1.87689091       4.83744111      -1.39381697       1.86181260
C        1.93664261      -0.65489015       1.90493914       0.47187844       5.39290681      -0.95891120
H        1.34987876      -0.89678413      -0.73345685       0.36076717      -0.11421410      -0.44893592
H       -1.64019357       0.29518418      -2.76908399      -0.78242141       0.13730201       0.02320125
H       -0.71442512      -1.26012363      -2.56873300       0.00797222       0.35179700       0.43873440
H        0.06439735       0.27470462      -2.97234131       0.65837614       0.07372995      -0.63324238
H       -0.90979235       0.79260399       1.39652741      -2.41646176       1.20573239      -2.68534081
H        1.59019133      -1.19914380       2.68426176      -1.82642982      -2.15836069       3.04552813
H        2.35439907       0.31336841       2.42785505      -0.01489406      -1.53144838      -0.59337229
H        2.71640969      -1.21148503       1.45178076       1.06776566      -0.48921632      -1.28650180
15
Lattice="50.0 0.0 0.0 0.0 50.0 0.0 0.0 0.0 50.0" Properties=species:S:1:pos:R:3:forces:R:3 dihedral_angle=29.768228907684794 config_type=600K_MD energy=-9390.788498262029 pbc="F F F"
C       -0.27425910      -0.11949238       1.32132279       0.35678097      -1.52760931       0.46326139
C       -0.67012377       0.19191851       0.07494184       1.66187890       1.07756190      -1.29589466
C        0.33872687       0.45869892      -1.01045099      -5.48922466      -0.85038949      -1.05194370
O        1.45457408       0.02980132      -1.17575919       2.37394761      -0.31142057       1.07093084
C       -0.42013492       1.12004911      -2.18904132       1.67994733      -1.66762761      -1.33580057
O        1.01132239      -0.42920332       1.54834232      -0.83070212       0.14088710       1.46927851
C       -1.19217716      -0.27631967       2.45425457       0.42600393       0.34102029      -0.89130860
H       -1.69214811       0.42964467      -0.17834793      -0.57868852       0.14318365       0.10917827
H       -1.49766740       1.02969796      -2.29271371      -0.75469048       0.19570962       0.87535347
H       -0.09965821       0.57574227      -3.15676281       0.36773248       1.19920049       0.93741965
H       -0.07459062       2.13478660      -2.04937762       0.00885414       1.21362246      -0.88617793
H        1.35722614      -0.38330330       0.65635521       1.63993665      -0.07100026      -1.54304444
H       -2.19735340      -0.13458629       2.13138389      -1.40978170      -0.16281377      -0.38529654
H       -0.98044549       0.55851579       3.05873783       0.36300043       1.56562002       1.75463348
H       -1.03353325      -1.16564502       3.01759660       0.18500503      -1.28594454       0.70941082
15
Lattice="50.0 0.0 0.0 0.0 50.0 0.0 0.0 0.0 50.0" Properties=species:S:1:pos:R:3:forces:R:3 dihedral_angle=351.960205581146 config_type=600K_MD energy=-9390.749265735441 pbc="F F F"
C       -0.43823359       0.26875422       1.31572322       2.06332364       0.47463786      -0.33252915
C        0.30641227       0.88017323       0.23097415      -0.74211660       1.26090898       1.31570233
C        0.52051316       0.21458395      -0.90393268       1.16541568      -1.78486886      -2.66444018
O        0.21980846      -1.09701918      -1.09008749       0.42647326       0.31630877       0.38124734
C        1.20168449       0.77005133      -2.19396615      -2.17376609       0.64657958       2.08852740
O       -0.82009534      -0.90488234       1.16997659      -0.67979963      -0.50428182       1.19072867
C       -0.50112786       1.07404481       2.61929463      -1.69440958      -1.46897536      -0.77259705
H        0.63147695       1.92032753       0.23614226       0.05393751       0.34578943       0.31809540
H        0.36036256       1.31739674      -2.68672667       0.02241044      -0.87920655      -0.73598532
H        1.53394004      -0.18966487      -2.56496800       0.66533128      -0.02316018      -1.45776821
H        1.86750444       1.64386091      -2.07954631       0.74279350      -0.56999525       0.45721988
H       -0.05453927      -1.52172836      -0.19115226      -0.36057827       1.24768416      -0.62520843
H       -0.09013967       2.04077391       2.51781511       0.59608851       1.85338585      -0.73778650
H        0.20848313       0.64004752       3.37174601      -1.27441450      -0.47319783       0.27496207
H       -1.63884499       1.21913053       2.70138370       1.18931085      -0.44160877       1.29983175
15
Lattice="50.0 0.0 0.0 0.0 50.0 0.0 0.0 0.0 50.0" Properties=species:S:1:pos:R:3:forces:R:3 dihedral_angle=20.455600613036786 config_type=600K_MD energy=-9391.00005539156 pbc="F F F"
C       -0.41972600       1.03003586       0.89547311      -1.85026764       0.11190334      -4.24162491
C       -0.35407231       0.43683222      -0.43358969      -0.10390575       1.25714343       0.28090770
C        0.49009853      -0.60853374      -0.65367715      -2.26646758      -0.64462311      -1.54757905
O        0.92040489      -1.32040008       0.33205797       1.73747877      -0.49329895       1.86601112
C        0.80807480      -1.23293969      -1.95807198       1.06796934       1.48490610      -0.52978478
O        0.08631192       0.51410846       1.85842599       1.80220791      -1.23912522       3.36306253
C       -1.22062536       2.27980872       0.89894038       0.14519910      -0.78200518       0.38791714
H       -0.96180174       0.92576273      -1.20095331       0.42545455      -0.02392570      -0.47313267
H        1.62676761      -0.59805911      -2.38368226      -0.78221676       0.29818689      -0.75623499
H        0.03492917      -1.58780713      -2.66144944      -0.05210092       0.37926564       0.07279300
H        1.46178109      -1.98794928      -1.63708617       0.81789757      -2.46069066       0.27043928
H        0.74807998      -0.74086367       1.15531242      -0.25383630      -0.05024983       0.45965799
H       -1.68332476       2.31471906       1.85063065      -0.77747656       0.70340226       1.61621880
H       -1.96111689       2.26514871       0.12131398      -0.74698722      -0.00151477      -0.76053119
H       -0.55590047       3.08924314       0.71163176       0.83705149       1.46062577      -0.00811998
15
Lattice="50.0 0.0 0.0 0.0 50.0 0.0 0.0 0.0 50.0" Properties=species:S:1:pos:R:3:forces:R:3 dihedral_angle=14.792702477770383 config_type=600K_MD energy=-9390.993102373386 pbc="F F F"
C       -0.06082982       1.44342593       0.12436921      -0.87253940      -2.74154522       1.41379043
C       -0.66667561       0.11268524       0.26357130      -0.95845488       0.13597716      -0.61198210
C        0.03010562      -1.07391079       0.23320385       1.22832381       0.08696747       0.90177188
O        1.35824808      -1.06644321       0.36537350       0.27744710      -0.97789076      -0.43746803
C       -0.55441826      -2.45651511      -0.02017246      -1.29949279       3.85225621       0.03738869
O        1.15167452       1.48809982      -0.01077493       2.24278928       1.41463575      -0.33649808
C       -1.04194913       2.54135948       0.22845382      -0.84955645      -0.05529517      -3.29935458
H       -1.75196665       0.11954819       0.15595470      -0.44091318      -0.46145851       0.11400990
H       -1.58832543      -2.29157076       0.34069498      -0.13568949      -1.00643456      -0.08247050
H        0.00007889      -3.28404778       0.32670855       0.85842961      -1.29968575       0.67219728
H       -0.55075063      -2.31024203      -1.09538204      -0.28884054      -1.03861718      -1.07272711
H        1.68900693      -0.14767462       0.19593069      -0.26992192       0.79265170       0.13748422
H       -1.81360627       2.37297081       0.94422651      -0.63969974      -0.15430227       1.44138738
H       -1.67296738       2.31946879      -0.74388400       0.84349229       0.87119387       1.07442438
H       -0.66198806       3.55609230       0.19745207       0.30462630       0.58154727       0.04804622
15